 Gaussian 03, Revision E.01,
 Gaussian 03:  AM64L-G03RevE.01 11-Sep-2007

 ------------
 # rhf/sto-3g
 ------------

 -----
 water
 -----
 Symbolic Z-matrix:
 Charge =  0 Multiplicity = 1

                         Standard orientation:
 ---------------------------------------------------------------------
 Center     Atomic     Atomic              Coordinates (Angstroms)
 Number     Number      Type              X           Y           Z
 ---------------------------------------------------------------------
    1          8             0        0.000000    0.000000    0.117203
    2          1             0        0.000000    0.756848   -0.468812
    3          1             0        0.000000   -0.756848   -0.468812
 ---------------------------------------------------------------------

 SCF Done:  E(RHF) =  -74.9629341028     A.U. after    4 cycles

 The electronic state is 1-A1.
 Alpha  occ. eigenvalues --  -20.24171  -1.26840  -0.61785  -0.45306  -0.39123
 Alpha virt. eigenvalues --    0.60569   0.74239

 Mulliken atomic charges:
              1
     1  O   -0.366335
     2  H    0.183167
     3  H    0.183167
 Sum of Mulliken charges=   0.00000

 Dipole moment (field-independent basis, Debye):
    X=     0.0000    Y=     0.0000    Z=    -1.7261  Tot=     1.7261
 Quadrupole moment (field-independent basis, Debye-Ang):
   XX=    -6.0943   YY=    -4.3581   ZZ=    -5.3934
   XY=     0.0000   XZ=     0.0000   YZ=     0.0000

 Normal termination of Gaussian 03 at Tue Sep 25 15:04:11 2012.
