 Gaussian 03, Revision E.01,
 Gaussian 03:  AM64L-G03RevE.01 11-Sep-2007

 -------------------------------
 # uhf/sto-3g gfinput IOP(6/7=1)
 -------------------------------

 -----
 water
 -----
 Symbolic Z-matrix:
 Charge =  1 Multiplicity = 2

                         Standard orientation:
 ---------------------------------------------------------------------
 Center     Atomic     Atomic              Coordinates (Angstroms)
 Number     Number      Type              X           Y           Z
 ---------------------------------------------------------------------
    1          8             0        0.000000    0.000000    0.117203
    2          1             0        0.000000    0.756848   -0.468812
    3          1             0        0.000000   -0.756848   -0.468812
 ---------------------------------------------------------------------

 SCF Done:  E(UHF) =  -74.6556968563     A.U. after    5 cycles

 The electronic state is 2-B1.
 Alpha  occ. eigenvalues --  -21.03379  -1.92841  -1.20097  -1.11518  -1.06842
 Alpha virt. eigenvalues --    0.08596   0.19985
  Beta  occ. eigenvalues --  -21.00291  -1.75832  -1.15866  -1.00894
  Beta virt. eigenvalues --   -0.22697   0.11830   0.22027

 Mulliken atomic charges:
              1
     1  O    0.100570
     2  H    0.449715
     3  H    0.449715
 Sum of Mulliken charges=   1.00000

 Dipole moment (field-independent basis, Debye):
    X=     0.0000    Y=     0.0000    Z=    -2.4628  Tot=     2.4628
 Quadrupole moment (field-independent basis, Debye-Ang):
   XX=    -4.6765   YY=    -2.4116   ZZ=    -4.2350
   XY=     0.0000   XZ=     0.0000   YZ=     0.0000

 Normal termination of Gaussian 03 at Fri Nov 16 14:53:47 2012.
